+ 0.012783 6 7 tcp 40 C--A--- 23 2.7 9.23 0 0
- 0.012783 6 7 tcp 40 C--A--- 23 2.7 9.23 0 0
r 0.0128 6 7 tcp 40 C--A--- 23 2.7 9.23 0 0
+ 0.012885 6 7 tcp 40 ------N 23 2.7 9.23 1 2
- 0.012885 6 7 tcp 40 ------N 23 2.7 9.23 1 2
+ 0.012891 6 7 tcp 1500 ------N 23 2.7 9.23 1 3
- 0.012891 6 7 tcp 1500 ------N 23 2.7 9.23 1 3
+ 0.012897 6 7 tcp 1500 ------N 23 2.7 9.23 1461 4
r 0.012902 6 7 tcp 40 ------N 23 2.7 9.23 1 2
- 0.012903 6 7 tcp 1500 ------N 23 2.7 9.23 1461 4
r 0.012919 6 7 tcp 1500 ------N 23 2.7 9.23 1 3
r 0.012931 6 7 tcp 1500 ------N 23 2.7 9.23 1461 4
+ 0.013015 6 7 tcp 1500 ------N 23 2.7 9.23 2921 7
- 0.013015 6 7 tcp 1500 ------N 23 2.7 9.23 2921 7
+ 0.013021 6 7 tcp 1500 ------N 23 2.7 9.23 4381 8
- 0.013027 6 7 tcp 1500 ------N 23 2.7 9.23 4381 8
+ 0.013027 6 7 tcp 1500 ------N 23 2.7 9.23 5841 9
- 0.013039 6 7 tcp 1500 ------N 23 2.7 9.23 5841 9
r 0.013044 6 7 tcp 1500 ------N 23 2.7 9.23 2921 7
r 0.013056 6 7 tcp 1500 ------N 23 2.7 9.23 4381 8
r 0.013068 6 7 tcp 1500 ------N 23 2.7 9.23 5841 9
+ 0.083603 6 7 tcp 40 C--A--- 31 3.7 9.31 0 13
- 0.083603 6 7 tcp 40 C--A--- 31 3.7 9.31 0 13
r 0.08362 6 7 tcp 40 C--A--- 31 3.7 9.31 0 13
+ 0.083704 6 7 tcp 40 ------N 31 3.7 9.31 1 15
- 0.083704 6 7 tcp 40 ------N 31 3.7 9.31 1 15
+ 0.08371 6 7 tcp 1500 ------N 31 3.7 9.31 1 16
- 0.08371 6 7 tcp 1500 ------N 31 3.7 9.31 1 16
+ 0.083716 6 7 tcp 1500 ------N 31 3.7 9.31 1461 17
r 0.083721 6 7 tcp 40 ------N 31 3.7 9.31 1 15
- 0.083722 6 7 tcp 1500 ------N 31 3.7 9.31 1461 17
r 0.083739 6 7 tcp 1500 ------N 31 3.7 9.31 1 16
r 0.083751 6 7 tcp 1500 ------N 31 3.7 9.31 1461 17
+ 0.083835 6 7 tcp 1500 ------N 31 3.7 9.31 2921 20
- 0.083835 6 7 tcp 1500 ------N 31 3.7 9.31 2921 20
+ 0.083841 6 7 tcp 1500 ------N 31 3.7 9.31 4381 21
- 0.083847 6 7 tcp 1500 ------N 31 3.7 9.31 4381 21
+ 0.083847 6 7 tcp 1500 ------N 31 3.7 9.31 5841 22
- 0.083859 6 7 tcp 1500 ------N 31 3.7 9.31 5841 22
r 0.083863 6 7 tcp 1500 ------N 31 3.7 9.31 2921 20
r 0.083875 6 7 tcp 1500 ------N 31 3.7 9.31 4381 21
r 0.083887 6 7 tcp 1500 ------N 31 3.7 9.31 5841 22
+ 0.116687 6 7 tcp 40 C--A--- 22 2.6 9.22 0 26
- 0.116687 6 7 tcp 40 C--A--- 22 2.6 9.22 0 26
r 0.116704 6 7 tcp 40 C--A--- 22 2.6 9.22 0 26
+ 0.116788 6 7 tcp 40 ------N 22 2.6 9.22 1 28
- 0.116788 6 7 tcp 40 ------N 22 2.6 9.22 1 28
+ 0.116794 6 7 tcp 1500 ------N 22 2.6 9.22 1 29
- 0.116794 6 7 tcp 1500 ------N 22 2.6 9.22 1 29
+ 0.1168 6 7 tcp 1500 ------N 22 2.6 9.22 1461 30
r 0.116805 6 7 tcp 40 ------N 22 2.6 9.22 1 28
- 0.116806 6 7 tcp 1500 ------N 22 2.6 9.22 1461 30
r 0.116823 6 7 tcp 1500 ------N 22 2.6 9.22 1 29
r 0.116835 6 7 tcp 1500 ------N 22 2.6 9.22 1461 30
+ 0.116919 6 7 tcp 1500 ------N 22 2.6 9.22 2921 33
- 0.116919 6 7 tcp 1500 ------N 22 2.6 9.22 2921 33
+ 0.116925 6 7 tcp 1500 ------N 22 2.6 9.22 4381 34
- 0.116931 6 7 tcp 1500 ------N 22 2.6 9.22 4381 34
+ 0.116931 6 7 tcp 1500 ------N 22 2.6 9.22 5841 35
- 0.116943 6 7 tcp 1500 ------N 22 2.6 9.22 5841 35
r 0.116947 6 7 tcp 1500 ------N 22 2.6 9.22 2921 33
r 0.116959 6 7 tcp 1500 ------N 22 2.6 9.22 4381 34
r 0.116971 6 7 tcp 1500 ------N 22 2.6 9.22 5841 35
+ 0.123959 6 7 tcp 40 C--A--- 21 2.5 9.21 0 39
- 0.123959 6 7 tcp 40 C--A--- 21 2.5 9.21 0 39
r 0.123976 6 7 tcp 40 C--A--- 21 2.5 9.21 0 39
+ 0.124061 6 7 tcp 40 ------N 21 2.5 9.21 1 41
- 0.124061 6 7 tcp 40 ------N 21 2.5 9.21 1 41
+ 0.124067 6 7 tcp 1500 ------N 21 2.5 9.21 1 42
- 0.124067 6 7 tcp 1500 ------N 21 2.5 9.21 1 42
+ 0.124073 6 7 tcp 1500 ------N 21 2.5 9.21 1461 43
r 0.124078 6 7 tcp 40 ------N 21 2.5 9.21 1 41
- 0.124079 6 7 tcp 1500 ------N 21 2.5 9.21 1461 43
r 0.124095 6 7 tcp 1500 ------N 21 2.5 9.21 1 42
r 0.124107 6 7 tcp 1500 ------N 21 2.5 9.21 1461 43
+ 0.124191 6 7 tcp 1500 ------N 21 2.5 9.21 2921 46
- 0.124191 6 7 tcp 1500 ------N 21 2.5 9.21 2921 46
+ 0.124197 6 7 tcp 1500 ------N 21 2.5 9.21 4381 47
- 0.124203 6 7 tcp 1500 ------N 21 2.5 9.21 4381 47
+ 0.124203 6 7 tcp 1500 ------N 21 2.5 9.21 5841 48
- 0.124215 6 7 tcp 1500 ------N 21 2.5 9.21 5841 48
r 0.12422 6 7 tcp 1500 ------N 21 2.5 9.21 2921 46
r 0.124232 6 7 tcp 1500 ------N 21 2.5 9.21 4381 47
r 0.124244 6 7 tcp 1500 ------N 21 2.5 9.21 5841 48
+ 0.143009 6 7 tcp 40 C--A--- 42 5.2 9.42 0 52
- 0.143009 6 7 tcp 40 C--A--- 42 5.2 9.42 0 52
r 0.143026 6 7 tcp 40 C--A--- 42 5.2 9.42 0 52
+ 0.14311 6 7 tcp 40 ------N 42 5.2 9.42 1 54
- 0.14311 6 7 tcp 40 ------N 42 5.2 9.42 1 54
+ 0.143116 6 7 tcp 1500 ------N 42 5.2 9.42 1 55
- 0.143116 6 7 tcp 1500 ------N 42 5.2 9.42 1 55
+ 0.143122 6 7 tcp 1500 ------N 42 5.2 9.42 1461 56
r 0.143127 6 7 tcp 40 ------N 42 5.2 9.42 1 54
- 0.143128 6 7 tcp 1500 ------N 42 5.2 9.42 1461 56
r 0.143145 6 7 tcp 1500 ------N 42 5.2 9.42 1 55
r 0.143157 6 7 tcp 1500 ------N 42 5.2 9.42 1461 56
+ 0.143241 6 7 tcp 1500 ------N 42 5.2 9.42 2921 59
- 0.143241 6 7 tcp 1500 ------N 42 5.2 9.42 2921 59
+ 0.143247 6 7 tcp 1500 ------N 42 5.2 9.42 4381 60
+ 0.143253 6 7 tcp 1500 ------N 42 5.2 9.42 5841 61
- 0.143253 6 7 tcp 1500 ------N 42 5.2 9.42 4381 60
- 0.143265 6 7 tcp 1500 ------N 42 5.2 9.42 5841 61
r 0.14327 6 7 tcp 1500 ------N 42 5.2 9.42 2921 59
r 0.143282 6 7 tcp 1500 ------N 42 5.2 9.42 4381 60
r 0.143294 6 7 tcp 1500 ------N 42 5.2 9.42 5841 61
+ 0.148517 6 7 tcp 40 C--A--- 29 3.5 9.29 0 65
- 0.148517 6 7 tcp 40 C--A--- 29 3.5 9.29 0 65
r 0.148534 6 7 tcp 40 C--A--- 29 3.5 9.29 0 65
+ 0.148619 6 7 tcp 40 ------N 29 3.5 9.29 1 67
- 0.148619 6 7 tcp 40 ------N 29 3.5 9.29 1 67
+ 0.148625 6 7 tcp 1500 ------N 29 3.5 9.29 1 68
- 0.148625 6 7 tcp 1500 ------N 29 3.5 9.29 1 68
+ 0.148631 6 7 tcp 1500 ------N 29 3.5 9.29 1461 69
r 0.148636 6 7 tcp 40 ------N 29 3.5 9.29 1 67
- 0.148637 6 7 tcp 1500 ------N 29 3.5 9.29 1461 69
r 0.148653 6 7 tcp 1500 ------N 29 3.5 9.29 1 68
r 0.148665 6 7 tcp 1500 ------N 29 3.5 9.29 1461 69
+ 0.148749 6 7 tcp 1500 ------N 29 3.5 9.29 2921 72
- 0.148749 6 7 tcp 1500 ------N 29 3.5 9.29 2921 72
+ 0.148755 6 7 tcp 1500 ------N 29 3.5 9.29 4381 73
+ 0.148761 6 7 tcp 1500 ------N 29 3.5 9.29 5841 74
- 0.148761 6 7 tcp 1500 ------N 29 3.5 9.29 4381 73
- 0.148773 6 7 tcp 1500 ------N 29 3.5 9.29 5841 74
r 0.148778 6 7 tcp 1500 ------N 29 3.5 9.29 2921 72
r 0.14879 6 7 tcp 1500 ------N 29 3.5 9.29 4381 73
r 0.148802 6 7 tcp 1500 ------N 29 3.5 9.29 5841 74
+ 0.159109 6 7 tcp 40 C--A--- 7 0.7 9.7 0 78
- 0.159109 6 7 tcp 40 C--A--- 7 0.7 9.7 0 78
r 0.159126 6 7 tcp 40 C--A--- 7 0.7 9.7 0 78
+ 0.159211 6 7 tcp 40 ------N 7 0.7 9.7 1 80
- 0.159211 6 7 tcp 40 ------N 7 0.7 9.7 1 80
+ 0.159217 6 7 tcp 1500 ------N 7 0.7 9.7 1 81
- 0.159217 6 7 tcp 1500 ------N 7 0.7 9.7 1 81
+ 0.159223 6 7 tcp 1500 ------N 7 0.7 9.7 1461 82
r 0.159228 6 7 tcp 40 ------N 7 0.7 9.7 1 80
- 0.159229 6 7 tcp 1500 ------N 7 0.7 9.7 1461 82
r 0.159245 6 7 tcp 1500 ------N 7 0.7 9.7 1 81
r 0.159257 6 7 tcp 1500 ------N 7 0.7 9.7 1461 82
+ 0.159341 6 7 tcp 1500 ------N 7 0.7 9.7 2921 85
- 0.159341 6 7 tcp 1500 ------N 7 0.7 9.7 2921 85
+ 0.159347 6 7 tcp 1500 ------N 7 0.7 9.7 4381 86
+ 0.159353 6 7 tcp 1500 ------N 7 0.7 9.7 5841 87
- 0.159353 6 7 tcp 1500 ------N 7 0.7 9.7 4381 86
- 0.159365 6 7 tcp 1500 ------N 7 0.7 9.7 5841 87
r 0.15937 6 7 tcp 1500 ------N 7 0.7 9.7 2921 85
r 0.159382 6 7 tcp 1500 ------N 7 0.7 9.7 4381 86
r 0.159394 6 7 tcp 1500 ------N 7 0.7 9.7 5841 87
+ 0.160912 6 7 tcp 40 C--A--- 26 3.2 9.26 0 91
- 0.160912 6 7 tcp 40 C--A--- 26 3.2 9.26 0 91
r 0.160929 6 7 tcp 40 C--A--- 26 3.2 9.26 0 91
+ 0.161014 6 7 tcp 40 ------N 26 3.2 9.26 1 93
- 0.161014 6 7 tcp 40 ------N 26 3.2 9.26 1 93
+ 0.16102 6 7 tcp 1500 ------N 26 3.2 9.26 1 94
- 0.16102 6 7 tcp 1500 ------N 26 3.2 9.26 1 94
+ 0.161026 6 7 tcp 1500 ------N 26 3.2 9.26 1461 95
r 0.161031 6 7 tcp 40 ------N 26 3.2 9.26 1 93
- 0.161032 6 7 tcp 1500 ------N 26 3.2 9.26 1461 95
r 0.161048 6 7 tcp 1500 ------N 26 3.2 9.26 1 94
r 0.16106 6 7 tcp 1500 ------N 26 3.2 9.26 1461 95
+ 0.161144 6 7 tcp 1500 ------N 26 3.2 9.26 2921 98
- 0.161144 6 7 tcp 1500 ------N 26 3.2 9.26 2921 98
+ 0.16115 6 7 tcp 1500 ------N 26 3.2 9.26 4381 99
+ 0.161156 6 7 tcp 1500 ------N 26 3.2 9.26 5841 100
- 0.161156 6 7 tcp 1500 ------N 26 3.2 9.26 4381 99
- 0.161168 6 7 tcp 1500 ------N 26 3.2 9.26 5841 100
r 0.161173 6 7 tcp 1500 ------N 26 3.2 9.26 2921 98
r 0.161185 6 7 tcp 1500 ------N 26 3.2 9.26 4381 99
r 0.161197 6 7 tcp 1500 ------N 26 3.2 9.26 5841 100
+ 0.17144 6 7 tcp 40 C--A--- 19 2.3 9.19 0 104
- 0.17144 6 7 tcp 40 C--A--- 19 2.3 9.19 0 104
r 0.171457 6 7 tcp 40 C--A--- 19 2.3 9.19 0 104
+ 0.171541 6 7 tcp 40 ------N 19 2.3 9.19 1 106
- 0.171541 6 7 tcp 40 ------N 19 2.3 9.19 1 106
+ 0.171547 6 7 tcp 1500 ------N 19 2.3 9.19 1 107
- 0.171547 6 7 tcp 1500 ------N 19 2.3 9.19 1 107
+ 0.171553 6 7 tcp 1500 ------N 19 2.3 9.19 1461 108
r 0.171558 6 7 tcp 40 ------N 19 2.3 9.19 1 106
- 0.171559 6 7 tcp 1500 ------N 19 2.3 9.19 1461 108
r 0.171576 6 7 tcp 1500 ------N 19 2.3 9.19 1 107
r 0.171588 6 7 tcp 1500 ------N 19 2.3 9.19 1461 108
+ 0.171672 6 7 tcp 1500 ------N 19 2.3 9.19 2921 111
- 0.171672 6 7 tcp 1500 ------N 19 2.3 9.19 2921 111
+ 0.171678 6 7 tcp 1500 ------N 19 2.3 9.19 4381 112
+ 0.171684 6 7 tcp 1500 ------N 19 2.3 9.19 5841 113
- 0.171684 6 7 tcp 1500 ------N 19 2.3 9.19 4381 112
- 0.171696 6 7 tcp 1500 ------N 19 2.3 9.19 5841 113
r 0.1717 6 7 tcp 1500 ------N 19 2.3 9.19 2921 111
r 0.171712 6 7 tcp 1500 ------N 19 2.3 9.19 4381 112
r 0.171724 6 7 tcp 1500 ------N 19 2.3 9.19 5841 113
+ 0.184009 6 7 tcp 40 C--A--- 5 0.5 9.5 0 117
- 0.184009 6 7 tcp 40 C--A--- 5 0.5 9.5 0 117
r 0.184026 6 7 tcp 40 C--A--- 5 0.5 9.5 0 117
+ 0.18411 6 7 tcp 40 ------N 5 0.5 9.5 1 119
- 0.18411 6 7 tcp 40 ------N 5 0.5 9.5 1 119
+ 0.184116 6 7 tcp 1500 ------N 5 0.5 9.5 1 120
- 0.184116 6 7 tcp 1500 ------N 5 0.5 9.5 1 120
+ 0.184122 6 7 tcp 1500 ------N 5 0.5 9.5 1461 121
r 0.184127 6 7 tcp 40 ------N 5 0.5 9.5 1 119
- 0.184128 6 7 tcp 1500 ------N 5 0.5 9.5 1461 121
r 0.184145 6 7 tcp 1500 ------N 5 0.5 9.5 1 120
r 0.184157 6 7 tcp 1500 ------N 5 0.5 9.5 1461 121
+ 0.184241 6 7 tcp 1500 ------N 5 0.5 9.5 2921 124
- 0.184241 6 7 tcp 1500 ------N 5 0.5 9.5 2921 124
+ 0.184247 6 7 tcp 1500 ------N 5 0.5 9.5 4381 125
+ 0.184253 6 7 tcp 1500 ------N 5 0.5 9.5 5841 126
- 0.184253 6 7 tcp 1500 ------N 5 0.5 9.5 4381 125
- 0.184265 6 7 tcp 1500 ------N 5 0.5 9.5 5841 126
r 0.184269 6 7 tcp 1500 ------N 5 0.5 9.5 2921 124
r 0.184281 6 7 tcp 1500 ------N 5 0.5 9.5 4381 125
+ 0.184281 6 7 tcp 40 C--A--- 6 0.6 9.6 0 127
- 0.184281 6 7 tcp 40 C--A--- 6 0.6 9.6 0 127
r 0.184293 6 7 tcp 1500 ------N 5 0.5 9.5 5841 126
r 0.184298 6 7 tcp 40 C--A--- 6 0.6 9.6 0 127
+ 0.184384 6 7 tcp 40 ------N 6 0.6 9.6 1 132
- 0.184384 6 7 tcp 40 ------N 6 0.6 9.6 1 132
+ 0.18439 6 7 tcp 1500 ------N 6 0.6 9.6 1 133
- 0.18439 6 7 tcp 1500 ------N 6 0.6 9.6 1 133
+ 0.184396 6 7 tcp 1500 ------N 6 0.6 9.6 1461 134
r 0.184401 6 7 tcp 40 ------N 6 0.6 9.6 1 132
- 0.184402 6 7 tcp 1500 ------N 6 0.6 9.6 1461 134
r 0.184418 6 7 tcp 1500 ------N 6 0.6 9.6 1 133
r 0.18443 6 7 tcp 1500 ------N 6 0.6 9.6 1461 134
+ 0.184514 6 7 tcp 1500 ------N 6 0.6 9.6 2921 137
- 0.184514 6 7 tcp 1500 ------N 6 0.6 9.6 2921 137
+ 0.18452 6 7 tcp 1500 ------N 6 0.6 9.6 4381 138
+ 0.184526 6 7 tcp 1500 ------N 6 0.6 9.6 5841 139
- 0.184526 6 7 tcp 1500 ------N 6 0.6 9.6 4381 138
- 0.184538 6 7 tcp 1500 ------N 6 0.6 9.6 5841 139
r 0.184543 6 7 tcp 1500 ------N 6 0.6 9.6 2921 137
r 0.184555 6 7 tcp 1500 ------N 6 0.6 9.6 4381 138
r 0.184567 6 7 tcp 1500 ------N 6 0.6 9.6 5841 139
+ 0.188956 6 7 tcp 40 C--A--- 35 4.3 9.35 0 143
- 0.188956 6 7 tcp 40 C--A--- 35 4.3 9.35 0 143
r 0.188973 6 7 tcp 40 C--A--- 35 4.3 9.35 0 143
+ 0.189057 6 7 tcp 40 ------N 35 4.3 9.35 1 145
- 0.189057 6 7 tcp 40 ------N 35 4.3 9.35 1 145
+ 0.189063 6 7 tcp 1500 ------N 35 4.3 9.35 1 146
- 0.189063 6 7 tcp 1500 ------N 35 4.3 9.35 1 146
+ 0.189069 6 7 tcp 1500 ------N 35 4.3 9.35 1461 147
r 0.189074 6 7 tcp 40 ------N 35 4.3 9.35 1 145
- 0.189075 6 7 tcp 1500 ------N 35 4.3 9.35 1461 147
r 0.189092 6 7 tcp 1500 ------N 35 4.3 9.35 1 146
r 0.189104 6 7 tcp 1500 ------N 35 4.3 9.35 1461 147
+ 0.189188 6 7 tcp 1500 ------N 35 4.3 9.35 2921 150
- 0.189188 6 7 tcp 1500 ------N 35 4.3 9.35 2921 150
+ 0.189194 6 7 tcp 1500 ------N 35 4.3 9.35 4381 151
+ 0.1892 6 7 tcp 1500 ------N 35 4.3 9.35 5841 152
- 0.1892 6 7 tcp 1500 ------N 35 4.3 9.35 4381 151
- 0.189212 6 7 tcp 1500 ------N 35 4.3 9.35 5841 152
r 0.189216 6 7 tcp 1500 ------N 35 4.3 9.35 2921 150
r 0.189228 6 7 tcp 1500 ------N 35 4.3 9.35 4381 151
r 0.18924 6 7 tcp 1500 ------N 35 4.3 9.35 5841 152
+ 0.207742 6 7 tcp 40 C--A--- 36 4.4 9.36 0 156
- 0.207742 6 7 tcp 40 C--A--- 36 4.4 9.36 0 156
r 0.207759 6 7 tcp 40 C--A--- 36 4.4 9.36 0 156
+ 0.207843 6 7 tcp 40 ------N 36 4.4 9.36 1 158
- 0.207843 6 7 tcp 40 ------N 36 4.4 9.36 1 158
+ 0.207849 6 7 tcp 1500 ------N 36 4.4 9.36 1 159
- 0.207849 6 7 tcp 1500 ------N 36 4.4 9.36 1 159
+ 0.207855 6 7 tcp 1500 ------N 36 4.4 9.36 1461 160
r 0.20786 6 7 tcp 40 ------N 36 4.4 9.36 1 158
- 0.207861 6 7 tcp 1500 ------N 36 4.4 9.36 1461 160
r 0.207878 6 7 tcp 1500 ------N 36 4.4 9.36 1 159
r 0.20789 6 7 tcp 1500 ------N 36 4.4 9.36 1461 160
+ 0.207974 6 7 tcp 1500 ------N 36 4.4 9.36 2921 163
- 0.207974 6 7 tcp 1500 ------N 36 4.4 9.36 2921 163
+ 0.20798 6 7 tcp 1500 ------N 36 4.4 9.36 4381 164
+ 0.207986 6 7 tcp 1500 ------N 36 4.4 9.36 5841 165
- 0.207986 6 7 tcp 1500 ------N 36 4.4 9.36 4381 164
- 0.207998 6 7 tcp 1500 ------N 36 4.4 9.36 5841 165
r 0.208003 6 7 tcp 1500 ------N 36 4.4 9.36 2921 163
r 0.208015 6 7 tcp 1500 ------N 36 4.4 9.36 4381 164
r 0.208027 6 7 tcp 1500 ------N 36 4.4 9.36 5841 165
+ 0.208281 6 7 tcp 40 C--A--- 47 5.7 9.47 0 169
- 0.208281 6 7 tcp 40 C--A--- 47 5.7 9.47 0 169
r 0.208298 6 7 tcp 40 C--A--- 47 5.7 9.47 0 169
+ 0.208382 6 7 tcp 40 ------N 47 5.7 9.47 1 171
- 0.208382 6 7 tcp 40 ------N 47 5.7 9.47 1 171
+ 0.208388 6 7 tcp 1500 ------N 47 5.7 9.47 1 172
- 0.208388 6 7 tcp 1500 ------N 47 5.7 9.47 1 172
+ 0.208394 6 7 tcp 1500 ------N 47 5.7 9.47 1461 173
r 0.208399 6 7 tcp 40 ------N 47 5.7 9.47 1 171
- 0.2084 6 7 tcp 1500 ------N 47 5.7 9.47 1461 173
r 0.208417 6 7 tcp 1500 ------N 47 5.7 9.47 1 172
r 0.208429 6 7 tcp 1500 ------N 47 5.7 9.47 1461 173
+ 0.208513 6 7 tcp 1500 ------N 47 5.7 9.47 2921 176
- 0.208513 6 7 tcp 1500 ------N 47 5.7 9.47 2921 176
+ 0.208519 6 7 tcp 1500 ------N 47 5.7 9.47 4381 177
+ 0.208525 6 7 tcp 1500 ------N 47 5.7 9.47 5841 178
- 0.208525 6 7 tcp 1500 ------N 47 5.7 9.47 4381 177
- 0.208537 6 7 tcp 1500 ------N 47 5.7 9.47 5841 178
r 0.208541 6 7 tcp 1500 ------N 47 5.7 9.47 2921 176
r 0.208553 6 7 tcp 1500 ------N 47 5.7 9.47 4381 177
r 0.208565 6 7 tcp 1500 ------N 47 5.7 9.47 5841 178
+ 0.213808 6 7 tcp 40 C--A--- 24 3.0 9.24 0 182
- 0.213808 6 7 tcp 40 C--A--- 24 3.0 9.24 0 182
r 0.213825 6 7 tcp 40 C--A--- 24 3.0 9.24 0 182
+ 0.213909 6 7 tcp 40 ------N 24 3.0 9.24 1 184
- 0.213909 6 7 tcp 40 ------N 24 3.0 9.24 1 184
+ 0.213915 6 7 tcp 1500 ------N 24 3.0 9.24 1 185
- 0.213915 6 7 tcp 1500 ------N 24 3.0 9.24 1 185
+ 0.213921 6 7 tcp 1500 ------N 24 3.0 9.24 1461 186
r 0.213926 6 7 tcp 40 ------N 24 3.0 9.24 1 184
- 0.213927 6 7 tcp 1500 ------N 24 3.0 9.24 1461 186
r 0.213944 6 7 tcp 1500 ------N 24 3.0 9.24 1 185
r 0.213956 6 7 tcp 1500 ------N 24 3.0 9.24 1461 186
+ 0.21404 6 7 tcp 1500 ------N 24 3.0 9.24 2921 189
- 0.21404 6 7 tcp 1500 ------N 24 3.0 9.24 2921 189
+ 0.214046 6 7 tcp 1500 ------N 24 3.0 9.24 4381 190
+ 0.214052 6 7 tcp 1500 ------N 24 3.0 9.24 5841 191
- 0.214052 6 7 tcp 1500 ------N 24 3.0 9.24 4381 190
- 0.214064 6 7 tcp 1500 ------N 24 3.0 9.24 5841 191
r 0.214068 6 7 tcp 1500 ------N 24 3.0 9.24 2921 189
r 0.21408 6 7 tcp 1500 ------N 24 3.0 9.24 4381 190
r 0.214092 6 7 tcp 1500 ------N 24 3.0 9.24 5841 191
+ 0.216696 6 7 tcp 40 C--A--- 16 2.0 9.16 0 195
- 0.216696 6 7 tcp 40 C--A--- 16 2.0 9.16 0 195
r 0.216713 6 7 tcp 40 C--A--- 16 2.0 9.16 0 195
+ 0.216797 6 7 tcp 40 ------N 16 2.0 9.16 1 197
- 0.216797 6 7 tcp 40 ------N 16 2.0 9.16 1 197
+ 0.216803 6 7 tcp 1500 ------N 16 2.0 9.16 1 198
- 0.216803 6 7 tcp 1500 ------N 16 2.0 9.16 1 198
+ 0.216809 6 7 tcp 1500 ------N 16 2.0 9.16 1461 199
r 0.216814 6 7 tcp 40 ------N 16 2.0 9.16 1 197
- 0.216815 6 7 tcp 1500 ------N 16 2.0 9.16 1461 199
r 0.216832 6 7 tcp 1500 ------N 16 2.0 9.16 1 198
r 0.216844 6 7 tcp 1500 ------N 16 2.0 9.16 1461 199
+ 0.216928 6 7 tcp 1500 ------N 16 2.0 9.16 2921 202
- 0.216928 6 7 tcp 1500 ------N 16 2.0 9.16 2921 202
+ 0.216934 6 7 tcp 1500 ------N 16 2.0 9.16 4381 203
+ 0.21694 6 7 tcp 1500 ------N 16 2.0 9.16 5841 204
- 0.21694 6 7 tcp 1500 ------N 16 2.0 9.16 4381 203
- 0.216952 6 7 tcp 1500 ------N 16 2.0 9.16 5841 204
r 0.216957 6 7 tcp 1500 ------N 16 2.0 9.16 2921 202
r 0.216969 6 7 tcp 1500 ------N 16 2.0 9.16 4381 203
r 0.216981 6 7 tcp 1500 ------N 16 2.0 9.16 5841 204
+ 0.240443 6 7 tcp 40 C--A--- 41 5.1 9.41 0 208
- 0.240443 6 7 tcp 40 C--A--- 41 5.1 9.41 0 208
r 0.24046 6 7 tcp 40 C--A--- 41 5.1 9.41 0 208
+ 0.240544 6 7 tcp 40 ------N 41 5.1 9.41 1 210
- 0.240544 6 7 tcp 40 ------N 41 5.1 9.41 1 210
+ 0.24055 6 7 tcp 1500 ------N 41 5.1 9.41 1 211
- 0.24055 6 7 tcp 1500 ------N 41 5.1 9.41 1 211
+ 0.240556 6 7 tcp 1500 ------N 41 5.1 9.41 1461 212
r 0.240561 6 7 tcp 40 ------N 41 5.1 9.41 1 210
- 0.240562 6 7 tcp 1500 ------N 41 5.1 9.41 1461 212
r 0.240579 6 7 tcp 1500 ------N 41 5.1 9.41 1 211
r 0.240591 6 7 tcp 1500 ------N 41 5.1 9.41 1461 212
+ 0.240675 6 7 tcp 1500 ------N 41 5.1 9.41 2921 215
- 0.240675 6 7 tcp 1500 ------N 41 5.1 9.41 2921 215
+ 0.240681 6 7 tcp 1500 ------N 41 5.1 9.41 4381 216
+ 0.240687 6 7 tcp 1500 ------N 41 5.1 9.41 5841 217
- 0.240687 6 7 tcp 1500 ------N 41 5.1 9.41 4381 216
- 0.240699 6 7 tcp 1500 ------N 41 5.1 9.41 5841 217
r 0.240704 6 7 tcp 1500 ------N 41 5.1 9.41 2921 215
r 0.240716 6 7 tcp 1500 ------N 41 5.1 9.41 4381 216
r 0.240728 6 7 tcp 1500 ------N 41 5.1 9.41 5841 217
+ 0.241233 6 7 tcp 40 C--A--- 45 5.5 9.45 0 221
- 0.241233 6 7 tcp 40 C--A--- 45 5.5 9.45 0 221
r 0.24125 6 7 tcp 40 C--A--- 45 5.5 9.45 0 221
+ 0.241334 6 7 tcp 40 ------N 45 5.5 9.45 1 223
- 0.241334 6 7 tcp 40 ------N 45 5.5 9.45 1 223
+ 0.24134 6 7 tcp 1500 ------N 45 5.5 9.45 1 224
- 0.24134 6 7 tcp 1500 ------N 45 5.5 9.45 1 224
+ 0.241346 6 7 tcp 1500 ------N 45 5.5 9.45 1461 225
r 0.241351 6 7 tcp 40 ------N 45 5.5 9.45 1 223
- 0.241352 6 7 tcp 1500 ------N 45 5.5 9.45 1461 225
r 0.241369 6 7 tcp 1500 ------N 45 5.5 9.45 1 224
r 0.241381 6 7 tcp 1500 ------N 45 5.5 9.45 1461 225
+ 0.241465 6 7 tcp 1500 ------N 45 5.5 9.45 2921 228
- 0.241465 6 7 tcp 1500 ------N 45 5.5 9.45 2921 228
+ 0.241471 6 7 tcp 1500 ------N 45 5.5 9.45 4381 229
+ 0.241477 6 7 tcp 1500 ------N 45 5.5 9.45 5841 230
- 0.241477 6 7 tcp 1500 ------N 45 5.5 9.45 4381 229
- 0.241489 6 7 tcp 1500 ------N 45 5.5 9.45 5841 230
r 0.241493 6 7 tcp 1500 ------N 45 5.5 9.45 2921 228
r 0.241505 6 7 tcp 1500 ------N 45 5.5 9.45 4381 229
r 0.241517 6 7 tcp 1500 ------N 45 5.5 9.45 5841 230
+ 0.244242 6 7 tcp 40 C--A--- 33 4.1 9.33 0 234
- 0.244242 6 7 tcp 40 C--A--- 33 4.1 9.33 0 234
r 0.244259 6 7 tcp 40 C--A--- 33 4.1 9.33 0 234
+ 0.244343 6 7 tcp 40 ------N 33 4.1 9.33 1 236
- 0.244343 6 7 tcp 40 ------N 33 4.1 9.33 1 236
+ 0.244349 6 7 tcp 1500 ------N 33 4.1 9.33 1 237
- 0.244349 6 7 tcp 1500 ------N 33 4.1 9.33 1 237
+ 0.244355 6 7 tcp 1500 ------N 33 4.1 9.33 1461 238
r 0.24436 6 7 tcp 40 ------N 33 4.1 9.33 1 236
- 0.244361 6 7 tcp 1500 ------N 33 4.1 9.33 1461 238
r 0.244378 6 7 tcp 1500 ------N 33 4.1 9.33 1 237
r 0.24439 6 7 tcp 1500 ------N 33 4.1 9.33 1461 238
+ 0.244474 6 7 tcp 1500 ------N 33 4.1 9.33 2921 241
- 0.244474 6 7 tcp 1500 ------N 33 4.1 9.33 2921 241
+ 0.24448 6 7 tcp 1500 ------N 33 4.1 9.33 4381 242
+ 0.244486 6 7 tcp 1500 ------N 33 4.1 9.33 5841 243
- 0.244486 6 7 tcp 1500 ------N 33 4.1 9.33 4381 242
- 0.244498 6 7 tcp 1500 ------N 33 4.1 9.33 5841 243
r 0.244503 6 7 tcp 1500 ------N 33 4.1 9.33 2921 241
r 0.244515 6 7 tcp 1500 ------N 33 4.1 9.33 4381 242
r 0.244527 6 7 tcp 1500 ------N 33 4.1 9.33 5841 243
+ 0.255079 6 7 tcp 40 C--A--- 37 4.5 9.37 0 247
- 0.255079 6 7 tcp 40 C--A--- 37 4.5 9.37 0 247
r 0.255096 6 7 tcp 40 C--A--- 37 4.5 9.37 0 247
+ 0.25518 6 7 tcp 40 ------N 37 4.5 9.37 1 249
- 0.25518 6 7 tcp 40 ------N 37 4.5 9.37 1 249
+ 0.255186 6 7 tcp 1500 ------N 37 4.5 9.37 1 250
- 0.255186 6 7 tcp 1500 ------N 37 4.5 9.37 1 250
+ 0.255192 6 7 tcp 1500 ------N 37 4.5 9.37 1461 251
r 0.255197 6 7 tcp 40 ------N 37 4.5 9.37 1 249
- 0.255198 6 7 tcp 1500 ------N 37 4.5 9.37 1461 251
r 0.255215 6 7 tcp 1500 ------N 37 4.5 9.37 1 250
r 0.255227 6 7 tcp 1500 ------N 37 4.5 9.37 1461 251
+ 0.255311 6 7 tcp 1500 ------N 37 4.5 9.37 2921 254
- 0.255311 6 7 tcp 1500 ------N 37 4.5 9.37 2921 254
+ 0.255317 6 7 tcp 1500 ------N 37 4.5 9.37 4381 255
+ 0.255323 6 7 tcp 1500 ------N 37 4.5 9.37 5841 256
- 0.255323 6 7 tcp 1500 ------N 37 4.5 9.37 4381 255
- 0.255335 6 7 tcp 1500 ------N 37 4.5 9.37 5841 256
r 0.25534 6 7 tcp 1500 ------N 37 4.5 9.37 2921 254
r 0.255352 6 7 tcp 1500 ------N 37 4.5 9.37 4381 255
r 0.255364 6 7 tcp 1500 ------N 37 4.5 9.37 5841 256
+ 0.276615 6 7 tcp 40 C--A--- 11 1.3 9.11 0 260
- 0.276615 6 7 tcp 40 C--A--- 11 1.3 9.11 0 260
r 0.276632 6 7 tcp 40 C--A--- 11 1.3 9.11 0 260
+ 0.276716 6 7 tcp 40 ------N 11 1.3 9.11 1 262
- 0.276716 6 7 tcp 40 ------N 11 1.3 9.11 1 262
+ 0.276722 6 7 tcp 1500 ------N 11 1.3 9.11 1 263
- 0.276722 6 7 tcp 1500 ------N 11 1.3 9.11 1 263
+ 0.276728 6 7 tcp 1500 ------N 11 1.3 9.11 1461 264
r 0.276733 6 7 tcp 40 ------N 11 1.3 9.11 1 262
- 0.276734 6 7 tcp 1500 ------N 11 1.3 9.11 1461 264
r 0.276751 6 7 tcp 1500 ------N 11 1.3 9.11 1 263
r 0.276763 6 7 tcp 1500 ------N 11 1.3 9.11 1461 264
+ 0.276847 6 7 tcp 1500 ------N 11 1.3 9.11 2921 267
- 0.276847 6 7 tcp 1500 ------N 11 1.3 9.11 2921 267
+ 0.276853 6 7 tcp 1500 ------N 11 1.3 9.11 4381 268
+ 0.276859 6 7 tcp 1500 ------N 11 1.3 9.11 5841 269
- 0.276859 6 7 tcp 1500 ------N 11 1.3 9.11 4381 268
- 0.276871 6 7 tcp 1500 ------N 11 1.3 9.11 5841 269
r 0.276875 6 7 tcp 1500 ------N 11 1.3 9.11 2921 267
r 0.276887 6 7 tcp 1500 ------N 11 1.3 9.11 4381 268
r 0.276899 6 7 tcp 1500 ------N 11 1.3 9.11 5841 269
+ 0.285327 6 7 tcp 40 C--A--- 46 5.6 9.46 0 273
- 0.285327 6 7 tcp 40 C--A--- 46 5.6 9.46 0 273
r 0.285344 6 7 tcp 40 C--A--- 46 5.6 9.46 0 273
+ 0.285428 6 7 tcp 40 ------N 46 5.6 9.46 1 275
- 0.285428 6 7 tcp 40 ------N 46 5.6 9.46 1 275
+ 0.285434 6 7 tcp 1500 ------N 46 5.6 9.46 1 276
- 0.285434 6 7 tcp 1500 ------N 46 5.6 9.46 1 276
+ 0.28544 6 7 tcp 1500 ------N 46 5.6 9.46 1461 277
r 0.285445 6 7 tcp 40 ------N 46 5.6 9.46 1 275
- 0.285446 6 7 tcp 1500 ------N 46 5.6 9.46 1461 277
r 0.285463 6 7 tcp 1500 ------N 46 5.6 9.46 1 276
r 0.285475 6 7 tcp 1500 ------N 46 5.6 9.46 1461 277
+ 0.285559 6 7 tcp 1500 ------N 46 5.6 9.46 2921 280
- 0.285559 6 7 tcp 1500 ------N 46 5.6 9.46 2921 280
+ 0.285565 6 7 tcp 1500 ------N 46 5.6 9.46 4381 281
+ 0.285571 6 7 tcp 1500 ------N 46 5.6 9.46 5841 282
- 0.285571 6 7 tcp 1500 ------N 46 5.6 9.46 4381 281
- 0.285583 6 7 tcp 1500 ------N 46 5.6 9.46 5841 282
r 0.285587 6 7 tcp 1500 ------N 46 5.6 9.46 2921 280
r 0.285599 6 7 tcp 1500 ------N 46 5.6 9.46 4381 281
r 0.285611 6 7 tcp 1500 ------N 46 5.6 9.46 5841 282
+ 0.294283 6 7 tcp 40 C--A--- 2 0.2 9.2 0 286
- 0.294283 6 7 tcp 40 C--A--- 2 0.2 9.2 0 286
r 0.2943 6 7 tcp 40 C--A--- 2 0.2 9.2 0 286
+ 0.294385 6 7 tcp 40 ------N 2 0.2 9.2 1 288
- 0.294385 6 7 tcp 40 ------N 2 0.2 9.2 1 288
+ 0.294391 6 7 tcp 1500 ------N 2 0.2 9.2 1 289
- 0.294391 6 7 tcp 1500 ------N 2 0.2 9.2 1 289
+ 0.294397 6 7 tcp 1500 ------N 2 0.2 9.2 1461 290
r 0.294402 6 7 tcp 40 ------N 2 0.2 9.2 1 288
- 0.294403 6 7 tcp 1500 ------N 2 0.2 9.2 1461 290
r 0.294419 6 7 tcp 1500 ------N 2 0.2 9.2 1 289
r 0.294431 6 7 tcp 1500 ------N 2 0.2 9.2 1461 290
+ 0.294515 6 7 tcp 1500 ------N 2 0.2 9.2 2921 293
- 0.294515 6 7 tcp 1500 ------N 2 0.2 9.2 2921 293
+ 0.294521 6 7 tcp 1500 ------N 2 0.2 9.2 4381 294
+ 0.294527 6 7 tcp 1500 ------N 2 0.2 9.2 5841 295
- 0.294527 6 7 tcp 1500 ------N 2 0.2 9.2 4381 294
- 0.294539 6 7 tcp 1500 ------N 2 0.2 9.2 5841 295
r 0.294544 6 7 tcp 1500 ------N 2 0.2 9.2 2921 293
r 0.294556 6 7 tcp 1500 ------N 2 0.2 9.2 4381 294
r 0.294568 6 7 tcp 1500 ------N 2 0.2 9.2 5841 295
+ 0.295521 6 7 tcp 40 C--A--- 25 3.1 9.25 0 299
- 0.295521 6 7 tcp 40 C--A--- 25 3.1 9.25 0 299
r 0.295538 6 7 tcp 40 C--A--- 25 3.1 9.25 0 299
+ 0.295622 6 7 tcp 40 ------N 25 3.1 9.25 1 301
- 0.295622 6 7 tcp 40 ------N 25 3.1 9.25 1 301
+ 0.295628 6 7 tcp 1500 ------N 25 3.1 9.25 1 302
- 0.295628 6 7 tcp 1500 ------N 25 3.1 9.25 1 302
+ 0.295634 6 7 tcp 1500 ------N 25 3.1 9.25 1461 303
r 0.295639 6 7 tcp 40 ------N 25 3.1 9.25 1 301
- 0.29564 6 7 tcp 1500 ------N 25 3.1 9.25 1461 303
r 0.295657 6 7 tcp 1500 ------N 25 3.1 9.25 1 302
r 0.295669 6 7 tcp 1500 ------N 25 3.1 9.25 1461 303
+ 0.295753 6 7 tcp 1500 ------N 25 3.1 9.25 2921 306
- 0.295753 6 7 tcp 1500 ------N 25 3.1 9.25 2921 306
+ 0.295759 6 7 tcp 1500 ------N 25 3.1 9.25 4381 307
+ 0.295765 6 7 tcp 1500 ------N 25 3.1 9.25 5841 308
- 0.295765 6 7 tcp 1500 ------N 25 3.1 9.25 4381 307
- 0.295777 6 7 tcp 1500 ------N 25 3.1 9.25 5841 308
r 0.295781 6 7 tcp 1500 ------N 25 3.1 9.25 2921 306
r 0.295793 6 7 tcp 1500 ------N 25 3.1 9.25 4381 307
r 0.295805 6 7 tcp 1500 ------N 25 3.1 9.25 5841 308
+ 0.297169 6 7 tcp 40 C--A--- 4 0.4 9.4 0 312
- 0.297169 6 7 tcp 40 C--A--- 4 0.4 9.4 0 312
r 0.297186 6 7 tcp 40 C--A--- 4 0.4 9.4 0 312
+ 0.29727 6 7 tcp 40 ------N 4 0.4 9.4 1 314
- 0.29727 6 7 tcp 40 ------N 4 0.4 9.4 1 314
+ 0.297276 6 7 tcp 1500 ------N 4 0.4 9.4 1 315
- 0.297276 6 7 tcp 1500 ------N 4 0.4 9.4 1 315
+ 0.297282 6 7 tcp 1500 ------N 4 0.4 9.4 1461 316
r 0.297287 6 7 tcp 40 ------N 4 0.4 9.4 1 314
- 0.297288 6 7 tcp 1500 ------N 4 0.4 9.4 1461 316
r 0.297305 6 7 tcp 1500 ------N 4 0.4 9.4 1 315
r 0.297317 6 7 tcp 1500 ------N 4 0.4 9.4 1461 316
+ 0.297401 6 7 tcp 1500 ------N 4 0.4 9.4 2921 319
- 0.297401 6 7 tcp 1500 ------N 4 0.4 9.4 2921 319
+ 0.297407 6 7 tcp 1500 ------N 4 0.4 9.4 4381 320
+ 0.297413 6 7 tcp 1500 ------N 4 0.4 9.4 5841 321
- 0.297413 6 7 tcp 1500 ------N 4 0.4 9.4 4381 320
- 0.297425 6 7 tcp 1500 ------N 4 0.4 9.4 5841 321
r 0.297429 6 7 tcp 1500 ------N 4 0.4 9.4 2921 319
r 0.297441 6 7 tcp 1500 ------N 4 0.4 9.4 4381 320
r 0.297453 6 7 tcp 1500 ------N 4 0.4 9.4 5841 321
+ 0.301102 6 7 tcp 40 C--A--- 15 1.7 9.15 0 325
- 0.301102 6 7 tcp 40 C--A--- 15 1.7 9.15 0 325
r 0.301119 6 7 tcp 40 C--A--- 15 1.7 9.15 0 325
+ 0.301203 6 7 tcp 40 ------N 15 1.7 9.15 1 327
- 0.301203 6 7 tcp 40 ------N 15 1.7 9.15 1 327
+ 0.301209 6 7 tcp 1500 ------N 15 1.7 9.15 1 328
- 0.301209 6 7 tcp 1500 ------N 15 1.7 9.15 1 328
+ 0.301215 6 7 tcp 1500 ------N 15 1.7 9.15 1461 329
r 0.30122 6 7 tcp 40 ------N 15 1.7 9.15 1 327
- 0.301221 6 7 tcp 1500 ------N 15 1.7 9.15 1461 329
r 0.301238 6 7 tcp 1500 ------N 15 1.7 9.15 1 328
r 0.30125 6 7 tcp 1500 ------N 15 1.7 9.15 1461 329
+ 0.301334 6 7 tcp 1500 ------N 15 1.7 9.15 2921 332
- 0.301334 6 7 tcp 1500 ------N 15 1.7 9.15 2921 332
+ 0.30134 6 7 tcp 1500 ------N 15 1.7 9.15 4381 333
+ 0.301346 6 7 tcp 1500 ------N 15 1.7 9.15 5841 334
- 0.301346 6 7 tcp 1500 ------N 15 1.7 9.15 4381 333
- 0.301358 6 7 tcp 1500 ------N 15 1.7 9.15 5841 334
r 0.301363 6 7 tcp 1500 ------N 15 1.7 9.15 2921 332
r 0.301375 6 7 tcp 1500 ------N 15 1.7 9.15 4381 333
r 0.301387 6 7 tcp 1500 ------N 15 1.7 9.15 5841 334
+ 0.319023 6 7 tcp 40 C--A--- 17 2.1 9.17 0 338
- 0.319023 6 7 tcp 40 C--A--- 17 2.1 9.17 0 338
r 0.31904 6 7 tcp 40 C--A--- 17 2.1 9.17 0 338
+ 0.319124 6 7 tcp 40 ------N 17 2.1 9.17 1 340
- 0.319124 6 7 tcp 40 ------N 17 2.1 9.17 1 340
+ 0.31913 6 7 tcp 1500 ------N 17 2.1 9.17 1 341
- 0.31913 6 7 tcp 1500 ------N 17 2.1 9.17 1 341
+ 0.319136 6 7 tcp 1500 ------N 17 2.1 9.17 1461 342
r 0.319141 6 7 tcp 40 ------N 17 2.1 9.17 1 340
- 0.319142 6 7 tcp 1500 ------N 17 2.1 9.17 1461 342
r 0.319159 6 7 tcp 1500 ------N 17 2.1 9.17 1 341
r 0.319171 6 7 tcp 1500 ------N 17 2.1 9.17 1461 342
+ 0.319255 6 7 tcp 1500 ------N 17 2.1 9.17 2921 345
- 0.319255 6 7 tcp 1500 ------N 17 2.1 9.17 2921 345
+ 0.319261 6 7 tcp 1500 ------N 17 2.1 9.17 4381 346
+ 0.319267 6 7 tcp 1500 ------N 17 2.1 9.17 5841 347
- 0.319267 6 7 tcp 1500 ------N 17 2.1 9.17 4381 346
- 0.319279 6 7 tcp 1500 ------N 17 2.1 9.17 5841 347
r 0.319283 6 7 tcp 1500 ------N 17 2.1 9.17 2921 345
r 0.319295 6 7 tcp 1500 ------N 17 2.1 9.17 4381 346
r 0.319307 6 7 tcp 1500 ------N 17 2.1 9.17 5841 347
+ 0.337862 6 7 tcp 40 C--A--- 43 5.3 9.43 0 351
- 0.337862 6 7 tcp 40 C--A--- 43 5.3 9.43 0 351
r 0.337879 6 7 tcp 40 C--A--- 43 5.3 9.43 0 351
+ 0.337963 6 7 tcp 40 ------N 43 5.3 9.43 1 353
- 0.337963 6 7 tcp 40 ------N 43 5.3 9.43 1 353
+ 0.337969 6 7 tcp 1500 ------N 43 5.3 9.43 1 354
- 0.337969 6 7 tcp 1500 ------N 43 5.3 9.43 1 354
+ 0.337975 6 7 tcp 1500 ------N 43 5.3 9.43 1461 355
r 0.33798 6 7 tcp 40 ------N 43 5.3 9.43 1 353
- 0.337981 6 7 tcp 1500 ------N 43 5.3 9.43 1461 355
r 0.337998 6 7 tcp 1500 ------N 43 5.3 9.43 1 354
r 0.33801 6 7 tcp 1500 ------N 43 5.3 9.43 1461 355
+ 0.338094 6 7 tcp 1500 ------N 43 5.3 9.43 2921 358
- 0.338094 6 7 tcp 1500 ------N 43 5.3 9.43 2921 358
+ 0.3381 6 7 tcp 1500 ------N 43 5.3 9.43 4381 359
+ 0.338106 6 7 tcp 1500 ------N 43 5.3 9.43 5841 360
- 0.338106 6 7 tcp 1500 ------N 43 5.3 9.43 4381 359
- 0.338118 6 7 tcp 1500 ------N 43 5.3 9.43 5841 360
r 0.338122 6 7 tcp 1500 ------N 43 5.3 9.43 2921 358
r 0.338134 6 7 tcp 1500 ------N 43 5.3 9.43 4381 359
r 0.338146 6 7 tcp 1500 ------N 43 5.3 9.43 5841 360
+ 0.339025 6 7 tcp 40 C--A--- 30 3.6 9.30 0 364
- 0.339025 6 7 tcp 40 C--A--- 30 3.6 9.30 0 364
r 0.339042 6 7 tcp 40 C--A--- 30 3.6 9.30 0 364
+ 0.339126 6 7 tcp 40 ------N 30 3.6 9.30 1 366
- 0.339126 6 7 tcp 40 ------N 30 3.6 9.30 1 366
+ 0.339132 6 7 tcp 1500 ------N 30 3.6 9.30 1 367
- 0.339132 6 7 tcp 1500 ------N 30 3.6 9.30 1 367
+ 0.339138 6 7 tcp 1500 ------N 30 3.6 9.30 1461 368